# vtk DataFile Version 3.0
Unstructured Grid from GEMSToolbox
ASCII
DATASET UNSTRUCTURED_GRID
FIELD TimesAndCycles 2
TIME 1 1 double
1.000000000000e+00
CYLCE 1 1 long
1
POINTS 200 double
0.000000000000e+00 0.000000000000e+00 0.000000000000e+00
5.000000000000e+01 0.000000000000e+00 0.000000000000e+00
1.000000000000e+02 0.000000000000e+00 0.000000000000e+00
1.500000000000e+02 0.000000000000e+00 0.000000000000e+00
2.000000000000e+02 0.000000000000e+00 0.000000000000e+00
4.500000000000e+02 4.500000000000e+02 1.000000000000e+02
3.000000000000e+02 0.000000000000e+00 0.000000000000e+00
3.500000000000e+02 0.000000000000e+00 0.000000000000e+00
4.000000000000e+02 0.000000000000e+00 0.000000000000e+00
4.500000000000e+02 0.000000000000e+00 0.000000000000e+00
0.000000000000e+00 5.000000000000e+01 0.000000000000e+00
5.000000000000e+01 5.000000000000e+01 0.000000000000e+00
1.000000000000e+02 5.000000000000e+01 0.000000000000e+00
1.500000000000e+02 5.000000000000e+01 0.000000000000e+00
2.000000000000e+02 5.000000000000e+01 0.000000000000e+00
2.500000000000e+02 5.000000000000e+01 0.000000000000e+00
3.000000000000e+02 5.000000000000e+01 0.000000000000e+00
3.500000000000e+02 5.000000000000e+01 0.000000000000e+00
4.000000000000e+02 5.000000000000e+01 0.000000000000e+00
4.500000000000e+02 5.000000000000e+01 0.000000000000e+00
0.000000000000e+00 1.000000000000e+02 0.000000000000e+00
5.000000000000e+01 1.000000000000e+02 0.000000000000e+00
1.000000000000e+02 1.000000000000e+02 0.000000000000e+00
1.500000000000e+02 1.000000000000e+02 0.000000000000e+00
2.000000000000e+02 1.000000000000e+02 0.000000000000e+00
2.500000000000e+02 1.000000000000e+02 0.000000000000e+00
3.000000000000e+02 1.000000000000e+02 0.000000000000e+00
3.500000000000e+02 1.000000000000e+02 0.000000000000e+00
4.000000000000e+02 1.000000000000e+02 0.000000000000e+00
4.500000000000e+02 1.000000000000e+02 0.000000000000e+00
0.000000000000e+00 1.500000000000e+02 0.000000000000e+00
5.000000000000e+01 1.500000000000e+02 0.000000000000e+00
1.000000000000e+02 1.500000000000e+02 0.000000000000e+00
1.500000000000e+02 1.500000000000e+02 0.000000000000e+00
2.000000000000e+02 1.500000000000e+02 0.000000000000e+00
2.500000000000e+02 1.500000000000e+02 0.000000000000e+00
3.000000000000e+02 1.500000000000e+02 0.000000000000e+00
3.500000000000e+02 1.500000000000e+02 0.000000000000e+00
4.000000000000e+02 1.500000000000e+02 0.000000000000e+00
4.500000000000e+02 1.500000000000e+02 0.000000000000e+00
0.000000000000e+00 2.000000000000e+02 0.000000000000e+00
5.000000000000e+01 2.000000000000e+02 0.000000000000e+00
1.000000000000e+02 2.000000000000e+02 0.000000000000e+00
1.500000000000e+02 2.000000000000e+02 0.000000000000e+00
2.000000000000e+02 2.000000000000e+02 0.000000000000e+00
2.500000000000e+02 2.000000000000e+02 0.000000000000e+00
3.000000000000e+02 2.000000000000e+02 0.000000000000e+00
3.500000000000e+02 2.000000000000e+02 0.000000000000e+00
4.000000000000e+02 2.000000000000e+02 0.000000000000e+00
4.500000000000e+02 2.000000000000e+02 0.000000000000e+00
0.000000000000e+00 2.500000000000e+02 0.000000000000e+00
5.000000000000e+01 2.500000000000e+02 0.000000000000e+00
1.000000000000e+02 2.500000000000e+02 0.000000000000e+00
1.500000000000e+02 2.500000000000e+02 0.000000000000e+00
2.000000000000e+02 2.500000000000e+02 0.000000000000e+00
2.500000000000e+02 2.500000000000e+02 0.000000000000e+00
3.000000000000e+02 2.500000000000e+02 0.000000000000e+00
3.500000000000e+02 2.500000000000e+02 0.000000000000e+00
4.000000000000e+02 2.500000000000e+02 0.000000000000e+00
4.500000000000e+02 2.500000000000e+02 0.000000000000e+00
0.000000000000e+00 3.000000000000e+02 0.000000000000e+00
5.000000000000e+01 3.000000000000e+02 0.000000000000e+00
1.000000000000e+02 3.000000000000e+02 0.000000000000e+00
1.500000000000e+02 3.000000000000e+02 0.000000000000e+00
2.000000000000e+02 3.000000000000e+02 0.000000000000e+00
2.500000000000e+02 3.000000000000e+02 0.000000000000e+00
3.000000000000e+02 3.000000000000e+02 0.000000000000e+00
3.500000000000e+02 3.000000000000e+02 0.000000000000e+00
4.000000000000e+02 3.000000000000e+02 0.000000000000e+00
4.500000000000e+02 3.000000000000e+02 0.000000000000e+00
0.000000000000e+00 3.500000000000e+02 0.000000000000e+00
5.000000000000e+01 3.500000000000e+02 0.000000000000e+00
1.000000000000e+02 3.500000000000e+02 0.000000000000e+00
1.500000000000e+02 3.500000000000e+02 0.000000000000e+00
2.000000000000e+02 3.500000000000e+02 0.000000000000e+00
2.500000000000e+02 3.500000000000e+02 0.000000000000e+00
3.000000000000e+02 3.500000000000e+02 0.000000000000e+00
3.500000000000e+02 3.500000000000e+02 0.000000000000e+00
4.000000000000e+02 3.500000000000e+02 0.000000000000e+00
4.500000000000e+02 3.500000000000e+02 0.000000000000e+00
0.000000000000e+00 4.000000000000e+02 0.000000000000e+00
5.000000000000e+01 4.000000000000e+02 0.000000000000e+00
1.000000000000e+02 4.000000000000e+02 0.000000000000e+00
1.500000000000e+02 4.000000000000e+02 0.000000000000e+00
2.000000000000e+02 4.000000000000e+02 0.000000000000e+00
2.500000000000e+02 4.000000000000e+02 0.000000000000e+00
3.000000000000e+02 4.000000000000e+02 0.000000000000e+00
3.500000000000e+02 4.000000000000e+02 0.000000000000e+00
4.000000000000e+02 4.000000000000e+02 0.000000000000e+00
4.500000000000e+02 4.000000000000e+02 0.000000000000e+00
0.000000000000e+00 4.500000000000e+02 0.000000000000e+00
5.000000000000e+01 4.500000000000e+02 0.000000000000e+00
1.000000000000e+02 4.500000000000e+02 0.000000000000e+00
1.500000000000e+02 4.500000000000e+02 0.000000000000e+00
2.000000000000e+02 4.500000000000e+02 0.000000000000e+00
2.500000000000e+02 4.500000000000e+02 0.000000000000e+00
3.000000000000e+02 4.500000000000e+02 0.000000000000e+00
3.500000000000e+02 4.500000000000e+02 0.000000000000e+00
4.000000000000e+02 4.500000000000e+02 0.000000000000e+00
4.500000000000e+02 4.500000000000e+02 0.000000000000e+00
0.000000000000e+00 0.000000000000e+00 1.000000000000e+02
5.000000000000e+01 0.000000000000e+00 1.000000000000e+02
1.000000000000e+02 0.000000000000e+00 1.000000000000e+02
1.500000000000e+02 0.000000000000e+00 1.000000000000e+02
2.000000000000e+02 0.000000000000e+00 1.000000000000e+02
2.500000000000e+02 0.000000000000e+00 1.000000000000e+02
3.000000000000e+02 0.000000000000e+00 1.000000000000e+02
3.500000000000e+02 0.000000000000e+00 1.000000000000e+02
4.000000000000e+02 0.000000000000e+00 1.000000000000e+02
4.500000000000e+02 0.000000000000e+00 1.000000000000e+02
0.000000000000e+00 5.000000000000e+01 1.000000000000e+02
5.000000000000e+01 5.000000000000e+01 1.000000000000e+02
1.000000000000e+02 5.000000000000e+01 1.000000000000e+02
1.500000000000e+02 5.000000000000e+01 1.000000000000e+02
2.000000000000e+02 5.000000000000e+01 1.000000000000e+02
2.500000000000e+02 5.000000000000e+01 1.000000000000e+02
3.000000000000e+02 5.000000000000e+01 1.000000000000e+02
3.500000000000e+02 5.000000000000e+01 1.000000000000e+02
4.000000000000e+02 5.000000000000e+01 1.000000000000e+02
4.500000000000e+02 5.000000000000e+01 1.000000000000e+02
0.000000000000e+00 1.000000000000e+02 1.000000000000e+02
5.000000000000e+01 1.000000000000e+02 1.000000000000e+02
1.000000000000e+02 1.000000000000e+02 1.000000000000e+02
1.500000000000e+02 1.000000000000e+02 1.000000000000e+02
2.000000000000e+02 1.000000000000e+02 1.000000000000e+02
2.500000000000e+02 1.000000000000e+02 1.000000000000e+02
3.000000000000e+02 1.000000000000e+02 1.000000000000e+02
3.500000000000e+02 1.000000000000e+02 1.000000000000e+02
4.000000000000e+02 1.000000000000e+02 1.000000000000e+02
4.500000000000e+02 1.000000000000e+02 1.000000000000e+02
0.000000000000e+00 1.500000000000e+02 1.000000000000e+02
5.000000000000e+01 1.500000000000e+02 1.000000000000e+02
1.000000000000e+02 1.500000000000e+02 1.000000000000e+02
1.500000000000e+02 1.500000000000e+02 1.000000000000e+02
2.000000000000e+02 1.500000000000e+02 1.000000000000e+02
2.500000000000e+02 1.500000000000e+02 1.000000000000e+02
3.000000000000e+02 1.500000000000e+02 1.000000000000e+02
3.500000000000e+02 1.500000000000e+02 1.000000000000e+02
4.000000000000e+02 1.500000000000e+02 1.000000000000e+02
4.500000000000e+02 1.500000000000e+02 1.000000000000e+02
0.000000000000e+00 2.000000000000e+02 1.000000000000e+02
5.000000000000e+01 2.000000000000e+02 1.000000000000e+02
1.000000000000e+02 2.000000000000e+02 1.000000000000e+02
1.500000000000e+02 2.000000000000e+02 1.000000000000e+02
2.000000000000e+02 2.000000000000e+02 1.000000000000e+02
2.500000000000e+02 2.000000000000e+02 1.000000000000e+02
3.000000000000e+02 2.000000000000e+02 1.000000000000e+02
3.500000000000e+02 2.000000000000e+02 1.000000000000e+02
4.000000000000e+02 2.000000000000e+02 1.000000000000e+02
4.500000000000e+02 2.000000000000e+02 1.000000000000e+02
0.000000000000e+00 2.500000000000e+02 1.000000000000e+02
5.000000000000e+01 2.500000000000e+02 1.000000000000e+02
1.000000000000e+02 2.500000000000e+02 1.000000000000e+02
1.500000000000e+02 2.500000000000e+02 1.000000000000e+02
2.000000000000e+02 2.500000000000e+02 1.000000000000e+02
2.500000000000e+02 2.500000000000e+02 1.000000000000e+02
3.000000000000e+02 2.500000000000e+02 1.000000000000e+02
3.500000000000e+02 2.500000000000e+02 1.000000000000e+02
4.000000000000e+02 2.500000000000e+02 1.000000000000e+02
4.500000000000e+02 2.500000000000e+02 1.000000000000e+02
0.000000000000e+00 3.000000000000e+02 1.000000000000e+02
5.000000000000e+01 3.000000000000e+02 1.000000000000e+02
1.000000000000e+02 3.000000000000e+02 1.000000000000e+02
1.500000000000e+02 3.000000000000e+02 1.000000000000e+02
2.000000000000e+02 3.000000000000e+02 1.000000000000e+02
2.500000000000e+02 3.000000000000e+02 1.000000000000e+02
3.000000000000e+02 3.000000000000e+02 1.000000000000e+02
3.500000000000e+02 3.000000000000e+02 1.000000000000e+02
4.000000000000e+02 3.000000000000e+02 1.000000000000e+02
4.500000000000e+02 3.000000000000e+02 1.000000000000e+02
0.000000000000e+00 3.500000000000e+02 1.000000000000e+02
5.000000000000e+01 3.500000000000e+02 1.000000000000e+02
1.000000000000e+02 3.500000000000e+02 1.000000000000e+02
1.500000000000e+02 3.500000000000e+02 1.000000000000e+02
2.000000000000e+02 3.500000000000e+02 1.000000000000e+02
2.500000000000e+02 3.500000000000e+02 1.000000000000e+02
3.000000000000e+02 3.500000000000e+02 1.000000000000e+02
3.500000000000e+02 3.500000000000e+02 1.000000000000e+02
4.000000000000e+02 3.500000000000e+02 1.000000000000e+02
4.500000000000e+02 3.500000000000e+02 1.000000000000e+02
0.000000000000e+00 4.000000000000e+02 1.000000000000e+02
5.000000000000e+01 4.000000000000e+02 1.000000000000e+02
1.000000000000e+02 4.000000000000e+02 1.000000000000e+02
1.500000000000e+02 4.000000000000e+02 1.000000000000e+02
2.000000000000e+02 4.000000000000e+02 1.000000000000e+02
2.500000000000e+02 4.000000000000e+02 1.000000000000e+02
3.000000000000e+02 4.000000000000e+02 1.000000000000e+02
3.500000000000e+02 4.000000000000e+02 1.000000000000e+02
4.000000000000e+02 4.000000000000e+02 1.000000000000e+02
4.500000000000e+02 4.000000000000e+02 1.000000000000e+02
0.000000000000e+00 4.500000000000e+02 1.000000000000e+02
5.000000000000e+01 4.500000000000e+02 1.000000000000e+02
1.000000000000e+02 4.500000000000e+02 1.000000000000e+02
1.500000000000e+02 4.500000000000e+02 1.000000000000e+02
2.000000000000e+02 4.500000000000e+02 1.000000000000e+02
2.500000000000e+02 4.500000000000e+02 1.000000000000e+02
3.000000000000e+02 4.500000000000e+02 1.000000000000e+02
3.500000000000e+02 4.500000000000e+02 1.000000000000e+02
4.000000000000e+02 4.500000000000e+02 1.000000000000e+02
2.500000000000e+02 0.000000000000e+00 0.000000000000e+00
CELLS 361 1083
2 0 1
2 10 11
2 20 21
2 30 31
2 40 41
2 50 51
2 60 61
2 70 71
2 80 81
2 90 91
2 1 2
2 11 12
2 21 22
2 31 32
2 41 42
2 51 52
2 61 62
2 71 72
2 81 82
2 91 92
2 2 3
2 12 13
2 22 23
2 32 33
2 42 43
2 52 53
2 62 63
2 72 73
2 82 83
2 92 93
2 3 4
2 13 14
2 23 24
2 33 34
2 43 44
2 53 54
2 63 64
2 73 74
2 83 84
2 93 94
2 4 199
2 14 15
2 24 25
2 35 34
2 45 44
2 55 54
2 64 65
2 74 75
2 84 85
2 94 95
2 199 6
2 15 16
2 25 26
2 36 35
2 46 45
2 56 55
2 66 65
2 75 76
2 85 86
2 95 96
2 6 7
2 16 17
2 26 27
2 37 36
2 47 46
2 57 56
2 67 66
2 77 76
2 86 87
2 96 97
2 7 8
2 17 18
2 27 28
2 38 37
2 48 47
2 58 57
2 68 67
2 78 77
2 87 88
2 97 98
2 8 9
2 18 19
2 28 29
2 39 38
2 49 48
2 59 58
2 69 68
2 79 78
2 89 88
2 98 99
2 10 0
2 1 11
2 2 12
2 3 13
2 4 14
2 199 15
2 6 16
2 7 17
2 8 18
2 9 19
2 10 20
2 11 21
2 12 22
2 13 23
2 14 24
2 15 25
2 16 26
2 17 27
2 18 28
2 19 29
2 20 30
2 21 31
2 22 32
2 23 33
2 24 34
2 25 35
2 26 36
2 27 37
2 28 38
2 29 39
2 30 40
2 31 41
2 32 42
2 33 43
2 34 44
2 35 45
2 36 46
2 37 47
2 38 48
2 39 49
2 40 50
2 41 51
2 42 52
2 53 43
2 54 44
2 55 45
2 46 56
2 47 57
2 48 58
2 49 59
2 50 60
2 51 61
2 52 62
2 63 53
2 64 54
2 65 55
2 66 56
2 67 57
2 58 68
2 59 69
2 60 70
2 61 71
2 62 72
2 73 63
2 74 64
2 75 65
2 76 66
2 77 67
2 78 68
2 69 79
2 70 80
2 71 81
2 72 82
2 83 73
2 84 74
2 85 75
2 86 76
2 87 77
2 88 78
2 89 79
2 80 90
2 81 91
2 82 92
2 93 83
2 94 84
2 95 85
2 96 86
2 97 87
2 98 88
2 99 89
2 100 101
2 111 110
2 121 120
2 131 130
2 141 140
2 151 150
2 160 161
2 170 171
2 180 181
2 190 191
2 101 102
2 111 112
2 122 121
2 132 131
2 142 141
2 152 151
2 161 162
2 171 172
2 181 182
2 191 192
2 102 103
2 112 113
2 123 122
2 133 132
2 143 142
2 153 152
2 162 163
2 172 173
2 182 183
2 192 193
2 103 104
2 113 114
2 123 124
2 134 133
2 144 143
2 154 153
2 163 164
2 173 174
2 183 184
2 193 194
2 104 105
2 114 115
2 124 125
2 134 135
2 144 145
2 154 155
2 164 165
2 174 175
2 184 185
2 194 195
2 105 106
2 115 116
2 125 126
2 135 136
2 145 146
2 155 156
2 165 166
2 175 176
2 185 186
2 195 196
2 106 107
2 116 117
2 126 127
2 136 137
2 146 147
2 156 157
2 166 167
2 176 177
2 186 187
2 196 197
2 107 108
2 117 118
2 127 128
2 137 138
2 147 148
2 157 158
2 167 168
2 177 178
2 187 188
2 197 198
2 108 109
2 118 119
2 128 129
2 138 139
2 148 149
2 158 159
2 168 169
2 178 179
2 188 189
2 198 5
2 110 100
2 111 101
2 112 102
2 113 103
2 114 104
2 115 105
2 106 116
2 107 117
2 108 118
2 109 119
2 120 110
2 121 111
2 122 112
2 123 113
2 124 114
2 125 115
2 116 126
2 117 127
2 118 128
2 119 129
2 120 130
2 131 121
2 132 122
2 133 123
2 134 124
2 135 125
2 126 136
2 127 137
2 128 138
2 129 139
2 130 140
2 131 141
2 142 132
2 143 133
2 144 134
2 145 135
2 136 146
2 137 147
2 138 148
2 139 149
2 140 150
2 141 151
2 142 152
2 143 153
2 144 154
2 145 155
2 146 156
2 147 157
2 148 158
2 149 159
2 150 160
2 151 161
2 152 162
2 153 163
2 154 164
2 155 165
2 156 166
2 157 167
2 158 168
2 159 169
2 160 170
2 161 171
2 162 172
2 163 173
2 164 174
2 165 175
2 166 176
2 167 177
2 168 178
2 169 179
2 170 180
2 171 181
2 172 182
2 173 183
2 174 184
2 175 185
2 176 186
2 177 187
2 188 178
2 189 179
2 180 190
2 181 191
2 182 192
2 183 193
2 184 194
2 185 195
2 186 196
2 187 197
2 198 188
2 5 189
2 44 144

CELL_TYPES 361
3
3
3
3
3
3
3
3
3
3
3
3
3
3
3
3
3
3
3
3
3
3
3
3
3
3
3
3
3
3
3
3
3
3
3
3
3
3
3
3
3
3
3
3
3
3
3
3
3
3
3
3
3
3
3
3
3
3
3
3
3
3
3
3
3
3
3
3
3
3
3
3
3
3
3
3
3
3
3
3
3
3
3
3
3
3
3
3
3
3
3
3
3
3
3
3
3
3
3
3
3
3
3
3
3
3
3
3
3
3
3
3
3
3
3
3
3
3
3
3
3
3
3
3
3
3
3
3
3
3
3
3
3
3
3
3
3
3
3
3
3
3
3
3
3
3
3
3
3
3
3
3
3
3
3
3
3
3
3
3
3
3
3
3
3
3
3
3
3
3
3
3
3
3
3
3
3
3
3
3
3
3
3
3
3
3
3
3
3
3
3
3
3
3
3
3
3
3
3
3
3
3
3
3
3
3
3
3
3
3
3
3
3
3
3
3
3
3
3
3
3
3
3
3
3
3
3
3
3
3
3
3
3
3
3
3
3
3
3
3
3
3
3
3
3
3
3
3
3
3
3
3
3
3
3
3
3
3
3
3
3
3
3
3
3
3
3
3
3
3
3
3
3
3
3
3
3
3
3
3
3
3
3
3
3
3
3
3
3
3
3
3
3
3
3
3
3
3
3
3
3
3
3
3
3
3
3
3
3
3
3
3
3
3
3
3
3
3
3
3
3
3
3
3
3
3
3
3
3
3
3
3
3
3
3
3
3
3
3
3
3
3
3
3
3
3
3
3
3
3
3
3
3
3
3
3
3
3
3
3
3

POINT_DATA 200
SCALARS T(C) double 1
LOOKUP_TABLE default
9.960245580717e+00
9.922006786704e+00
9.884889231343e+00
9.842218782730e+00
9.790015227272e+00
1.224665199346e+01
9.632120673034e+00
9.513204970244e+00
9.359857671283e+00
9.160770652985e+00
1.000000000000e+01
9.973410176796e+00
9.912393027541e+00
9.838926905460e+00
9.756493688378e+00
9.655624802246e+00
9.530215674717e+00
9.380831945644e+00
9.219154955187e+00
9.066600824660e+00
9.978853005723e+00
9.930859618927e+00
9.872956230910e+00
9.806635606472e+00
9.728093447002e+00
9.606426568079e+00
9.449146485052e+00
9.281584605140e+00
9.133686470142e+00
9.032964861848e+00
9.946253936858e+00
9.881620346596e+00
9.825136822388e+00
9.770154295923e+00
9.694471437177e+00
9.505619004455e+00
9.342801988002e+00
9.194453410993e+00
9.087734222798e+00
9.017708629766e+00
9.900258153364e+00
9.820560369482e+00
9.766473903145e+00
9.711856449716e+00
9.528862890545e+00
9.287941554947e+00
9.209066794181e+00
9.107334719018e+00
9.045858382871e+00
9.000000000000e+00
9.836217995057e+00
9.736678043472e+00
9.667781509743e+00
9.568778688764e+00
9.352085487983e+00
9.018985214813e+00
9.008302699134e+00
9.019113765704e+00
9.013370847551e+00
9.000000000000e+00
9.747610669211e+00
9.622058762549e+00
9.528271957766e+00
9.418710692873e+00
9.275240925657e+00
9.037231863021e+00
9.000000000000e+00
9.000000000000e+00
9.000000000000e+00
9.000000000000e+00
9.627085443397e+00
9.474990634880e+00
9.364345154977e+00
9.268374784963e+00
9.163849848745e+00
9.058930345663e+00
9.000000000000e+00
9.000000000000e+00
9.000000000000e+00
9.000000000000e+00
9.466046347804e+00
9.303466286200e+00
9.202241011510e+00
9.143406994722e+00
9.084244806738e+00
9.035640416598e+00
9.000000000000e+00
9.000000000000e+00
9.000000000000e+00
9.000000000000e+00
9.243813901127e+00
9.123139642921e+00
9.068295080986e+00
9.046387212719e+00
9.028674297879e+00
9.000000000000e+00
9.000000000000e+00
9.000000000000e+00
9.000000000000e+00
9.000000000000e+00
1.276000000000e+01
1.276000000000e+01
1.262178065618e+01
1.233333470593e+01
1.215785980673e+01
1.224584782172e+01
1.232711624245e+01
1.239824381307e+01
1.247144057418e+01
1.256608932087e+01
1.276000000000e+01
1.276000000000e+01
1.210119709745e+01
1.139333358753e+01
1.103219220353e+01
1.126825834380e+01
1.150214130763e+01
1.182006228790e+01
1.214942769678e+01
1.246452919594e+01
1.276000000000e+01
1.231940442130e+01
1.160675054956e+01
1.060243988179e+01
1.014281599153e+01
1.047881861956e+01
1.080458836697e+01
1.126988399816e+01
1.178847576997e+01
1.230767853931e+01
1.222623850463e+01
1.123899256120e+01
1.067547455135e+01
1.020896280146e+01
9.703113909484e+00
9.989785413125e+00
1.030915641674e+01
1.080199503069e+01
1.141688188097e+01
1.210374722073e+01
1.207138075481e+01
1.088042537473e+01
9.991197859148e+00
9.708210243760e+00
9.586242976145e+00
9.674658255004e+00
9.970469216378e+00
1.044571151265e+01
1.107610674674e+01
1.186134025826e+01
1.223460693330e+01
1.126240101718e+01
1.048109391350e+01
1.003837663444e+01
9.679148055751e+00
9.868531779805e+00
1.009930215342e+01
1.041522385336e+01
1.088604226004e+01
1.160840074394e+01
1.234266389129e+01
1.154526251774e+01
1.087057128638e+01
1.041067686424e+01
1.003706970102e+01
1.015280457869e+01
1.031215207379e+01
1.050568424831e+01
1.079883333989e+01
1.134305344227e+01
1.243215396966e+01
1.190509686483e+01
1.139439546106e+01
1.096980098521e+01
1.062633818033e+01
1.060610156679e+01
1.066500727814e+01
1.074281647053e+01
1.092345639925e+01
1.134948485482e+01
1.251992288813e+01
1.225260000001e+01
1.194518470453e+01
1.164102174937e+01
1.138131456060e+01
1.128375530803e+01
1.127561078567e+01
1.133217278322e+01
1.154926326875e+01
1.186223270000e+01
1.262630230361e+01
1.256047388134e+01
1.244724712212e+01
1.231477061992e+01
1.219124040256e+01
1.212152102906e+01
1.210974622869e+01
1.216559846605e+01
1.220274004336e+01
9.722239964003e+00
SCALARS Head(m) double 1
LOOKUP_TABLE default
5.433036211413e-08
5.240365223160e-08
5.049724083558e-08
4.894873307763e-08
4.779423994660e-08
3.344663320932e-09
4.651372238317e-08
4.621522651557e-08
4.604908714028e-08
4.597520608646e-08
5.625707199666e-08
5.238335374509e-08
5.013933719751e-08
4.855471845072e-08
4.742344665653e-08
4.672365798715e-08
4.631540052829e-08
4.608287002326e-08
4.595682881880e-08
4.590132503265e-08
5.231331994145e-08
5.073335355461e-08
4.912203575864e-08
4.770735687119e-08
4.662117024165e-08
4.614524465814e-08
4.594135171960e-08
4.584402423037e-08
4.579403307903e-08
4.577194019268e-08
4.994953427307e-08
4.911470477326e-08
4.790809541126e-08
4.653150303376e-08
4.520863278075e-08
4.529479868417e-08
4.546073746158e-08
4.555784209958e-08
4.560333907428e-08
4.562046246635e-08
4.842057810452e-08
4.786783585408e-08
4.686413807938e-08
4.530192707182e-08
4.238705916343e-08
4.436457983620e-08
4.504895734297e-08
4.532326763210e-08
4.544101865216e-08
4.548610813209e-08
4.744436418640e-08
4.707192245917e-08
4.637869398036e-08
4.542500801072e-08
4.441727715426e-08
4.472750415424e-08
4.504724444198e-08
4.524525243370e-08
4.535135977017e-08
4.539684327776e-08
4.684059199553e-08
4.659679581582e-08
4.615370737217e-08
4.560213383643e-08
4.512953728863e-08
4.508091518454e-08
4.516726383702e-08
4.525913789054e-08
4.532232471708e-08
4.535306193100e-08
4.648061598437e-08
4.632096143641e-08
4.603720585608e-08
4.570028267419e-08
4.541782297931e-08
4.529935545824e-08
4.528175783103e-08
4.530171057435e-08
4.532573927661e-08
4.534001779818e-08
4.628029452116e-08
4.616922808937e-08
4.597387194156e-08
4.574396802493e-08
4.554211649620e-08
4.541692583809e-08
4.535870145450e-08
4.534020729921e-08
4.533890401683e-08
4.534125218692e-08
4.619103948974e-08
4.610178445833e-08
4.594508579588e-08
4.575960098775e-08
4.558974914245e-08
4.546752994341e-08
4.539591484969e-08
4.536151315116e-08
4.534841730458e-08
4.534483474575e-08
1.101940902094e-08
1.100866134445e-08
1.097038117015e-08
1.087120553633e-08
1.066931840711e-08
1.034588409886e-08
9.956977581737e-09
9.581667140806e-09
9.289636726998e-09
9.130593333573e-09
1.103015669743e-08
1.103619384226e-08
1.103127662967e-08
1.097391703173e-08
1.079086558613e-08
1.041135630773e-08
9.943381505545e-09
9.498387113682e-09
9.156649706617e-09
8.971549940147e-09
1.103486722910e-08
1.107468069748e-08
1.114461447455e-08
1.120232037479e-08
1.110887059795e-08
1.056529404040e-08
9.906805019027e-09
9.311850101762e-09
8.867025045638e-09
8.627406780252e-09
1.099976429239e-08
1.108304724400e-08
1.127018019626e-08
1.158187939492e-08
1.187700239049e-08
1.083414423690e-08
9.806694428396e-09
8.975183228701e-09
8.372193593922e-09
8.043645354972e-09
1.088137840407e-08
1.098756378987e-08
1.127117967158e-08
1.197801461814e-08
1.398311533218e-08
1.108758608831e-08
9.510645228959e-09
8.409994790722e-09
7.602920746377e-09
7.131335690741e-09
1.065680712995e-08
1.071464983984e-08
1.084896008204e-08
1.107588407390e-08
1.124567804247e-08
1.002243955520e-08
8.738305608410e-09
7.551229958852e-09
6.498158910124e-09
5.747440970874e-09
1.037439314595e-08
1.036526835748e-08
1.033412674284e-08
1.023088355294e-08
9.901273208598e-09
9.018188481613e-09
7.868907690630e-09
6.558460526150e-09
5.091043964394e-09
3.612828311756e-09
1.010110395043e-08
1.003790370128e-08
9.891394978910e-09
9.612250186430e-09
9.110342757368e-09
8.280133472025e-09
7.160676146347e-09
5.722660490723e-09
3.694728109545e-09
0.000000000000e+00
9.891015004049e-09
9.793847518302e-09
9.581299285090e-09
9.216379456500e-09
8.647714162419e-09
7.831326502771e-09
6.771002932012e-09
5.476777180849e-09
3.965207983064e-09
2.436623767999e-09
9.778093543419e-09
9.665172082789e-09
9.423575186647e-09
9.024254192061e-09
8.432807933036e-09
7.626455444629e-09
6.615231898080e-09
5.448237317598e-09
4.252702873865e-09
4.701054010564e-08
SCALARS transit_times(s) double 1
LOOKUP_TABLE default
3.177670408562e+05
6.355340817124e+05
9.566845423303e+05
1.352061895021e+06
1.882376785169e+06
8.826821390982e+06
3.895933543477e+06
5.947033623634e+06
9.632161829351e+06
1.791906173593e+07
0.000000000000e+00
1.580509624602e+05
4.308853578295e+05
8.172526775388e+05
1.358453210520e+06
2.233352912028e+06
3.733006830589e+06
6.365972762809e+06
1.122347075810e+07
2.225415785818e+07
1.552442672329e+05
5.291084335382e+05
9.090737634634e+05
1.341853882960e+06
1.905518433148e+06
3.191948327169e+06
5.369811663871e+06
8.929320814910e+06
1.498428721938e+07
2.698612566905e+07
4.142545938251e+05
9.073528711283e+05
1.413418889877e+06
1.858172840258e+06
2.320988370783e+06
3.911858723239e+06
6.643691678346e+06
1.106867485592e+07
1.819490151614e+07
3.102794034902e+07
8.146878505470e+05
1.398378742849e+06
1.999884331771e+06
2.356104580072e+06
2.537975407450e+06
4.570031688986e+06
8.130516491607e+06
1.367869846393e+07
2.196673065486e+07
3.558488226929e+07
1.441850490414e+06
2.167614317813e+06
3.050793409089e+06
3.692770870694e+06
4.300318902031e+06
2.152140925517e+07
2.461848402872e+07
2.152646288021e+07
2.879533351482e+07
4.244362754520e+07
2.455883443922e+06
3.456207383542e+06
4.837974176915e+06
5.947971046386e+06
7.243462731243e+06
1.978902162297e+07
4.725123051482e+07
5.957117777831e+07
4.988173883284e+07
5.642777703783e+07
4.156677049526e+06
5.675817931246e+06
7.833466768521e+06
9.650631424615e+06
1.181817925205e+07
1.698621933944e+07
4.190383300924e+07
8.295537010437e+07
1.462429289941e+08
1.033641971165e+08
7.212989079990e+06
9.710823484687e+06
1.284481698758e+07
1.550786382432e+07
1.854100854119e+07
2.343150841726e+07
3.394677470738e+07
6.705155230900e+07
1.720645430525e+08
4.494996858454e+08
1.407248919177e+07
1.878869916501e+07
2.269584737160e+07
2.599662927462e+07
2.960121123766e+07
3.461061158357e+07
4.315971577605e+07
6.095665383701e+07
1.077077282460e+08
2.786037070457e+08
1.918575105267e+08
5.571636819194e+07
2.427263955177e+07
1.223095951670e+07
8.175784599287e+06
1.006873436481e+07
1.164300702676e+07
1.327430962639e+07
1.537082036298e+07
1.922036660802e+07
1.348921842600e+08
3.347919587922e+07
1.421860756371e+07
6.270137940028e+06
3.138687869663e+06
4.751941965970e+06
6.060227999950e+06
7.436076570527e+06
9.227641922462e+06
1.253529006075e+07
3.294913343371e+07
1.757129967740e+07
8.816661738650e+06
3.589595309777e+06
1.213419791489e+06
2.339746689617e+06
3.269519059518e+06
4.298580052532e+06
5.674952380329e+06
8.230036805856e+06
1.456386380262e+07
7.212480522764e+06
3.940769738750e+06
1.976552632656e+06
4.163626928124e+05
1.003446272542e+06
1.599334162046e+06
2.335638012413e+06
3.350986971411e+06
5.214472528099e+06
9.221708365118e+06
3.455897059275e+06
1.297185444560e+06
4.310074196410e+05
1.256637061436e+05
3.371086084031e+05
7.253570923772e+05
1.281614444112e+06
2.040212620139e+06
3.338482975914e+06
1.194799159240e+07
5.699259473974e+06
2.747248191827e+06
1.109672943012e+06
3.493199339085e+05
8.498314076167e+05
1.326607914841e+06
1.842366871052e+06
2.423756795976e+06
3.239302643422e+06
1.411589025409e+07
7.451627383764e+06
3.936458080438e+06
1.834222671415e+06
8.047221182317e+05
1.459484624887e+06
1.992204655329e+06
2.459070888915e+06
2.858863323567e+06
3.273041658688e+06
1.635617237275e+07
9.321850348788e+06
5.319338071975e+06
2.823895927177e+06
1.578803956916e+06
2.289022924885e+06
2.835935150940e+06
3.191596459636e+06
3.297334960077e+06
3.442505813951e+06
1.927038993877e+07
1.183047311954e+07
7.293712144752e+06
4.370473766027e+06
2.902208745646e+06
3.652152587550e+06
4.229565855389e+06
4.702624668667e+06
5.107663947621e+06
5.508194642577e+06
2.469225478663e+07
1.658852888613e+07
1.117545820641e+07
7.557170215070e+06
5.751101956969e+06
6.510378956497e+06
7.115828562618e+06
7.640462445414e+06
8.152572239630e+06
2.663600496033e+06
SCALARS Well_positions double 1
LOOKUP_TABLE default
NaN
NaN
NaN
NaN
NaN
NaN
NaN
NaN
NaN
NaN
1.000000000000e+00
NaN
NaN
NaN
NaN
NaN
NaN
NaN
NaN
NaN
NaN
NaN
NaN
NaN
NaN
NaN
NaN
NaN
NaN
NaN
NaN
NaN
NaN
NaN
NaN
NaN
NaN
NaN
NaN
NaN
NaN
NaN
NaN
NaN
NaN
NaN
NaN
NaN
NaN
NaN
NaN
NaN
NaN
NaN
NaN
NaN
NaN
NaN
NaN
NaN
NaN
NaN
NaN
NaN
NaN
NaN
NaN
NaN
NaN
NaN
NaN
NaN
NaN
NaN
NaN
NaN
NaN
NaN
NaN
NaN
NaN
NaN
NaN
NaN
NaN
NaN
NaN
NaN
NaN
NaN
NaN
NaN
NaN
NaN
NaN
NaN
NaN
NaN
NaN
NaN
NaN
NaN
NaN
NaN
NaN
NaN
NaN
NaN
NaN
NaN
NaN
NaN
NaN
NaN
NaN
NaN
NaN
NaN
NaN
NaN
NaN
NaN
NaN
NaN
NaN
NaN
NaN
NaN
NaN
NaN
NaN
NaN
NaN
NaN
NaN
NaN
NaN
NaN
NaN
NaN
NaN
NaN
NaN
NaN
NaN
NaN
NaN
NaN
NaN
NaN
NaN
NaN
NaN
NaN
NaN
NaN
NaN
NaN
NaN
NaN
NaN
NaN
NaN
NaN
NaN
NaN
NaN
NaN
NaN
NaN
NaN
NaN
NaN
NaN
NaN
NaN
NaN
NaN
NaN
-1.000000000000e+00
NaN
NaN
NaN
NaN
NaN
NaN
NaN
NaN
NaN
NaN
NaN
NaN
NaN
NaN
NaN
NaN
NaN
NaN
NaN
0.000000000000e+00
SCALARS Tree_pos double 1
LOOKUP_TABLE default
2.000000000000e+00
3.000000000000e+00
4.000000000000e+00
5.000000000000e+00
6.000000000000e+00
1.960000000000e+02
8.000000000000e+00
9.000000000000e+00
1.000000000000e+01
1.100000000000e+01
0.000000000000e+00
1.200000000000e+01
1.300000000000e+01
1.400000000000e+01
1.500000000000e+01
1.600000000000e+01
1.700000000000e+01
1.800000000000e+01
1.900000000000e+01
2.000000000000e+01
2.100000000000e+01
2.200000000000e+01
2.300000000000e+01
2.400000000000e+01
2.500000000000e+01
2.600000000000e+01
2.700000000000e+01
2.800000000000e+01
2.900000000000e+01
3.000000000000e+01
4.300000000000e+01
4.400000000000e+01
4.500000000000e+01
4.600000000000e+01
4.700000000000e+01
3.500000000000e+01
3.400000000000e+01
3.300000000000e+01
3.200000000000e+01
3.100000000000e+01
4.800000000000e+01
4.900000000000e+01
5.000000000000e+01
9.900000000000e+01
1.000000000000e+02
9.600000000000e+01
3.900000000000e+01
3.800000000000e+01
3.700000000000e+01
3.600000000000e+01
5.100000000000e+01
5.200000000000e+01
5.300000000000e+01
9.700000000000e+01
9.800000000000e+01
9.500000000000e+01
9.100000000000e+01
8.500000000000e+01
4.100000000000e+01
4.000000000000e+01
5.400000000000e+01
5.500000000000e+01
5.600000000000e+01
9.200000000000e+01
9.300000000000e+01
9.400000000000e+01
9.000000000000e+01
8.400000000000e+01
8.300000000000e+01
4.200000000000e+01
5.700000000000e+01
5.800000000000e+01
5.900000000000e+01
8.600000000000e+01
8.700000000000e+01
8.800000000000e+01
8.900000000000e+01
8.200000000000e+01
8.100000000000e+01
7.400000000000e+01
6.000000000000e+01
6.100000000000e+01
6.200000000000e+01
7.500000000000e+01
7.600000000000e+01
7.700000000000e+01
7.800000000000e+01
7.900000000000e+01
8.000000000000e+01
7.300000000000e+01
6.300000000000e+01
6.400000000000e+01
6.500000000000e+01
6.600000000000e+01
6.700000000000e+01
6.800000000000e+01
6.900000000000e+01
7.000000000000e+01
7.100000000000e+01
7.200000000000e+01
1.180000000000e+02